# IKS01A3 
 
time[us],acc_x[mg],acc_y[mg],acc_z[mg],gyro_x[mdps],gyro_y[mdps],gyro_z[mdps]
313316000,-62,839,-673,4519,641,-4198
313335000,-101,825,-682,4274,4534,1022
313354000,-77,757,-665,3450,5938,-2427
313373000,-63,752,-647,4778,4778,-12290
313392000,-87,764,-660,4656,4519,-18625
313411000,-174,770,-686,4610,8320,-20229
313430000,-267,717,-716,4000,14992,-25114
313449000,-375,655,-736,2076,22106,-41923
313468000,-392,700,-712,2748,33664,-65618
313487000,-521,751,-763,2870,49007,-80763
313506000,-603,760,-762,3404,66564,-93770
313525000,-613,770,-732,4564,88137,-121160
313544000,-652,748,-722,9725,105175,-158396
313563000,-694,869,-740,9145,125465,-182305
313582000,-565,871,-750,5541,146992,-180519
313601000,327,616,-209,3786,150137,-200366
313620000,3999,1701,2124,62671,-80259,-252961
313639000,-145,2480,-1878,72656,-81709,-186580
313658000,-622,1800,-1069,-13984,-21297,122213
313677000,117,972,25,-20534,82229,264931
313696000,16,347,-1123,-7893,47755,210732
313715000,54,173,-592,22671,-58091,66793
313734000,-112,894,-378,31618,-93526,48427
313753000,-194,882,-766,17908,-48977,103587
313772000,-82,652,-724,14778,-59206,112305
313791000,-69,683,-633,11206,-80916,92595
313810000,-140,718,-679,7603,-78931,85923
313829000,-177,748,-726,1358,-68534,90167
313848000,-197,754,-767,-3160,-58641,98229
313867000,-134,699,-737,-8977,-51358,99419
313886000,-120,719,-715,-7740,-49587,84045
313905000,-150,730,-737,-8122,-46839,70839
313924000,-178,739,-791,-6106,-42656,59801
313943000,-208,756,-841,-3114,-37099,54381
313962000,-235,768,-853,-1496,-27297,56320
313981000,-156,748,-807,-122,-21053,55435
314000000,-94,719,-736,2610,-21694,48503
314019000,-135,776,-746,6381,-19160,45282
314038000,-168,723,-763,8106,-16152,44213
314057000,-115,630,-737,9099,-16534,33435
314076000,-125,651,-761,9496,-19343,20656
314095000,-91,680,-748,10503,-20610,11862
314114000,-117,748,-772,11725,-20122,11557
314133000,-170,724,-783,13236,-15251,14000
314152000,-152,659,-771,14076,-13068,3129
314171000,-147,645,-787,14198,-12137,-12442
314190000,-131,700,-780,14351,-10015,-20549
314209000,-133,747,-802,13419,-1877,-12793
314228000,-104,695,-765,12167,3847,-6961
314247000,-82,632,-763,10839,5587,-11679
314266000,-87,596,-787,8580,5083,-20106
314285000,-71,642,-789,6061,4335,-27465
314304000,-88,705,-836,4824,5816,-25877
314323000,-128,737,-853,3389,10839,-17129
314342000,-98,713,-806,3786,13786,-18213
314361000,-95,702,-782,6412,14030,-26870
314380000,-110,720,-788,8916,16152,-29603
314399000,-114,688,-789,9236,17557,-28244
314418000,-145,629,-813,7419,19038,-28091
314437000,-176,598,-826,4580,19557,-33938
314456000,-212,593,-814,2045,19740,-44412
314475000,-298,639,-917,1908,25862,-52580
314494000,-384,710,-888,4854,30748,-63007
314513000,-497,772,-931,8045,44000,-66809
314532000,-591,737,-953,11709,63083,-70396
314551000,-627,616,-885,14717,78412,-94335
314570000,-776,585,-860,17374,95664,-133297
314589000,-799,615,-813,17969,119099,-176152
314608000,-778,625,-790,11801,144992,-206366
314627000,-389,533,-646,1206,161297,-226366
314646000,952,0,-164,-5709,151511,-293282
314665000,3999,2020,1633,106061,-364244,-188809
314684000,-353,2032,-68,20549,-90961,-129572
314703000,-625,1487,-2284,-52015,37511,142824
314722000,-51,363,-1039,-54015,4671,190045
314741000,47,64,-190,-33374,-16702,129511
314760000,-153,508,-878,-16671,-29816,27083
314779000,-235,680,-1063,-19068,-33893,40854
314798000,-131,595,-796,-18091,-30793,52396
314817000,-141,659,-753,-15358,-32381,42229
314836000,-196,662,-855,-16061,-28045,46992
314855000,-171,566,-832,-16839,-25129,41160
314874001,-139,599,-830,-16488,-25221,32152
314893000,-170,671,-854,-14946,-22412,38198
314912000,-189,656,-839,-14641,-20030,47786
314931000,-165,624,-814,-13633,-20335,46534
314950000,-138,635,-822,-11969,-24458,42213
314969000,-166,673,-843,-10488,-26015,40931
314988000,-148,670,-846,-9267,-26183,40885
315007000,-130,664,-853,-7175,-26015,42015
315026000,-149,694,-872,-5267,-23053,46274
315045000,-137,666,-859,-3679,-20748,50717
315064000,-117,639,-822,-2076,-19877,49877
315083000,-166,693,-840,-473,-15908,49740
315102000,-95,638,-791,1770,-14641,48854
315121000,-91,629,-768,3969,-16167,40992
315140000,-158,637,-812,4946,-15099,36274
315159000,-145,599,-831,3862,-14000,29603
315178000,-178,626,-859,3389,-14091,15129
315197000,-197,695,-896,3206,-12244,4122
315216000,-164,693,-901,3572,-7114,-3618
315235000,-131,670,-862,5358,-3694,-17145
315254000,-181,714,-903,6778,4000,-24656
315273000,-195,722,-873,6396,16442,-23984
315292000,-180,686,-806,6824,28244,-26732
315311000,-136,613,-730,7511,33709,-38213
315330000,-181,558,-729,4442,34748,-52412
315349001,-336,613,-768,1816,42198,-61190
315368000,-374,595,-775,-5022,51022,-66381
315387000,-318,569,-768,-7786,58106,-84763
315406000,-229,489,-636,-13877,46106,-118183
315425000,-386,724,-686,-12702,39435,-149465
315444000,-531,835,-861,-15236,53374,-157923
315463000,-630,815,-931,-18213,74167,-159450
315482000,-97,858,-856,-8061,78900,-180900
315501000,3999,1850,790,36503,-34106,-172244
315520000,596,1493,-559,44564,-48778,-52229
315539000,-346,590,-873,-70900,34503,91938
315558000,-280,861,-912,-49160,31557,86900
315577000,89,491,-222,-37312,-16458,70091
315596000,291,751,-412,-26503,-23664,61633
315615000,217,713,-591,-14793,-36274,88946
315634000,144,474,-535,-16305,-58183,90259
315653000,149,611,-543,-6534,-82351,64809
315672000,140,820,-638,-1282,-93404,69022
315691000,13,924,-858,-3450,-91160,97435
315710000,-24,919,-882,-3145,-85343,123374
315729000,-79,779,-841,-5267,-81435,134213
315748000,-74,744,-807,-4427,-79358,128229
315767000,-69,752,-825,-5083,-75618,121725
315786000,-134,742,-860,-5206,-69389,114564
315805000,-199,746,-900,-4839,-57343,104229
315824000,-209,731,-916,-7312,-43206,98000
315843000,-136,715,-868,-9801,-32671,93984
315862000,-87,697,-833,-11068,-26305,89374
315881000,-104,699,-822,-10625,-21694,81801
315900000,-115,678,-816,-9038,-18152,73343
315919000,-55,682,-780,-5877,-16687,63145
315938000,-62,728,-802,-2000,-16091,58045
315957000,-76,700,-787,-916,-14183,58106
315976000,-64,668,-763,-534,-12946,55251
315995000,-10,655,-729,381,-12442,49190
316014001,31,672,-722,2732,-16137,39038
316033000,-7,681,-754,4381,-17984,32381
316052000,-18,675,-754,5282,-17832,26900
316071000,-29,663,-765,4503,-16473,21404
316090000,35,629,-721,3755,-17496,13908
316109000,-26,710,-759,4305,-17496,7755
316128000,-60,704,-753,4137,-13419,5969
316147000,-93,690,-786,4778,-8396,-1557
316166000,-80,643,-784,3618,-3557,-12625
316185000,-29,665,-783,3236,-1175,-24854
316204000,-5,733,-813,2900,3129,-25725
316223000,-15,760,-813,4442,9297,-22259
316242000,-11,721,-826,5465,14641,-24427
316261000,-3,704,-826,6961,16702,-32183
316280000,-21,712,-829,8519,19343,-40137
316299000,-25,703,-815,9664,23022,-45145
316318000,-21,750,-820,11160,26625,-47572
316337000,-37,752,-836,12671,32030,-44137
316356000,-69,655,-834,11816,37068,-45984
316375000,-132,633,-853,12564,40625,-60351
316394000,-142,656,-838,12839,42824,-72580
316413000,-281,745,-851,16290,50900,-83083
316432000,-377,729,-806,18732,60473,-96870
316451000,-482,673,-828,20015,78106,-120564
316470000,-466,674,-835,21832,91908,-149526
316489000,-533,699,-825,22381,103664,-177114
316508000,-457,592,-721,16778,119374,-201374
316527000,-167,508,-640,11190,129923,-233694
316546000,780,1166,-532,27786,133725,-216549
316565000,2509,1085,1061,96610,-52396,-144183
316584000,-542,1639,-856,-29206,5282,39755
316603000,-461,949,-1294,-43129,60320,140488
316622000,-32,38,-664,-50793,47267,122503
316641000,301,296,-279,-33190,-5893,32992
316660000,346,678,-555,-22183,-33740,305
316679000,107,833,-784,-24488,-36274,33511
316698000,-13,830,-851,-25114,-37282,73679
316717000,102,730,-727,-23847,-41343,84167
316736002,160,732,-730,-17603,-58015,62687
316755000,17,888,-815,-8488,-65954,58320
316774000,-56,899,-824,-5679,-61389,76213
316793000,-24,779,-786,-3083,-58748,87450
316812000,-50,767,-788,442,-59832,85419
316831000,-87,724,-788,1954,-61633,82977
316850000,-38,696,-757,2778,-62717,77099
316869000,-130,771,-816,5374,-59984,72534
316888000,-99,730,-825,5282,-52900,73618
316907000,-70,670,-804,4564,-50198,72045
316926000,-84,619,-783,2473,-46396,64458
316945000,-46,630,-806,1465,-43954,52610
316964000,-42,696,-837,1587,-40076,51755
316983000,-72,707,-837,-259,-33267,55435
317002000,-51,691,-832,-244,-26045,59526
317021000,-10,634,-817,30,-24473,53587
317040000,-20,611,-816,351,-25618,38732
317059000,-22,664,-863,1312,-23740,31129
317078000,25,660,-864,2045,-20854,30580
317097000,-8,693,-889,5679,-17175,31877
317116000,-2,647,-873,7709,-12473,31740
317135000,5,637,-867,10885,-10885,23923
317154000,29,620,-872,12503,-9175,19114
317173000,31,605,-878,14274,-8076,14992
317192000,-16,591,-906,14305,-4473,11816
317211002,-34,589,-913,15969,198,8213
317230000,-46,578,-885,17007,4687,885
317249000,-44,611,-884,19450,8427,-6732
317268000,-58,587,-901,20061,13526,-9114
317287000,-115,579,-944,21770,18595,-17404
317306000,-119,557,-914,23694,21816,-30091
317325000,-177,568,-940,26473,27664,-42198
317344000,-206,509,-928,26671,35022,-54748
317363000,-294,462,-893,25725,42702,-73053
317382000,-351,460,-878,23175,51725,-93374
317401000,-416,470,-888,19541,65450,-111480
317420000,-416,496,-880,18839,75450,-139083
317439000,-440,527,-877,18076,86381,-165236
317458000,-537,488,-810,13618,96061,-201587
317477000,-540,548,-728,9175,106961,-245328
317496000,-490,668,-675,-2549,120061,-263587
317515000,643,450,-527,-12839,109465,-282809
317534000,2174,2047,-1288,138809,-79694,-264045
317553000,-597,1987,-1693,-30381,-44625,-4763
317572000,36,1118,-810,-42442,15435,143145
317591000,-31,186,-784,-42503,28244,119312
317610000,97,427,-695,-19648,-27709,43526
317629000,52,833,-817,-16381,-33801,53938
317648000,-3,593,-867,-22580,-22595,97786
317667000,33,442,-770,-21435,-34748,77022
317686000,-40,672,-854,-14870,-46946,60931
317705000,-67,701,-875,-14519,-43801,71664
317724000,-57,661,-858,-11145,-43923,71603
317743000,-71,638,-856,-6427,-45755,62137
317762000,-79,667,-882,-671,-46366,55603
317781000,-62,644,-878,2183,-44290,59328
317800000,-56,600,-853,4381,-44061,55282
317819000,-42,610,-870,5893,-44916,49007
317838000,-51,610,-868,6290,-41206,50381
317857000,-46,590,-844,5648,-38045,47648
317876000,-79,558,-883,4748,-33740,43816
317895000,-124,505,-922,3587,-27923,37664
317914000,-142,479,-929,1847,-21969,27145
317933000,-154,488,-956,595,-17526,13099
317952000,-216,538,-1018,-305,-9832,7374
317971000,-189,569,-1008,-1770,-870,6259
317990000,-173,506,-987,-4748,4320,-3755
318009000,-137,547,-1004,-6793,4091,-17328
318028000,-64,634,-969,-8656,2488,-21847
318047000,21,706,-936,-9282,-885,-20656
318066000,53,830,-936,-6839,-4030,-12091
318085000,57,792,-918,-4992,-4229,2152
318104000,146,691,-820,-992,-7282,1816
318123000,178,644,-762,5969,-16061,-12106
318142000,154,624,-826,8320,-18305,-9312
318161000,89,558,-869,5969,-14885,4076
318180000,33,462,-868,1557,-11893,8549
318199000,-4,434,-887,-2534,-11465,-1496
318218000,-69,527,-928,-4045,-7312,-7923
318237000,-71,536,-907,-6412,1007,-6366
318256000,-41,563,-901,-5358,4366,-12702
318275000,-59,687,-909,-3862,9145,-9450
318294002,-16,687,-886,-5221,12152,473
318313000,-2,637,-831,-6519,5725,-2641
318332000,-13,588,-783,-11374,-1603,-8335
318351001,91,632,-722,-14381,-10045,-17053
318370000,42,686,-705,-19129,-11374,-7038
318389000,-19,623,-697,-23633,-9923,3755
318408000,-58,525,-727,-28595,-8717,9160
318427000,-76,426,-699,-35984,-14366,5083
318446000,-42,461,-690,-39267,-23404,-8351
318465000,-59,553,-778,-39419,-30854,-18702
318484000,-82,693,-846,-36580,-32244,-15206
318503000,-88,767,-890,-30824,-22503,5709
318522000,-59,677,-899,-26229,-15145,15435
318541000,6,577,-908,-20290,-15358,6488
318560000,-41,567,-973,-12534,-17893,-11145
318579000,-91,709,-998,-8045,-12396,-10167
318598000,-44,798,-919,-2625,-1603,5770
318617000,-25,729,-885,-519,1374,14748
318636000,-93,713,-889,-183,1664,11496
318655000,-71,726,-857,2656,-992,152
318674000,-103,797,-933,7465,-656,-2900
318693000,-114,790,-1003,9862,6488,2473
318712000,-169,764,-1046,11450,18473,8641
318731000,-186,704,-1015,13374,31572,10793
318750000,-167,549,-901,12854,39282,1786
318769001,-90,415,-826,11938,34839,-16610
318788000,-269,486,-791,12839,31435,-37374
318807000,-536,478,-763,9496,37374,-46213
318826000,-575,487,-708,5099,54106,-60839
318845000,-675,333,-638,-4580,63312,-89282
318864000,-737,400,-534,-6564,67908,-152854
318883000,-539,343,-597,-14442,68473,-208580
318902000,265,199,-370,-30977,48061,-243083
318921000,3999,1614,1494,26427,-108748,-273511
318940000,-659,2134,-1929,-4656,-91114,-116534
318959000,-443,1151,-1204,-43954,-17511,65541
318978000,-467,253,-385,-36488,42778,55908
318997000,21,590,-750,-21251,4290,-29572
319016002,196,1109,-785,-5312,-26702,13114
319035000,395,859,-409,-19206,-24595,114961
319054000,215,732,-784,-26473,-39480,155664
319073000,163,612,-752,-27175,-66564,139129
319092000,16,752,-724,-26076,-80595,117251
319111000,25,901,-712,-22916,-85923,108076
319130000,-74,994,-704,-21709,-83511,121129
319149000,-232,943,-712,-23908,-79450,131664
319168000,-273,810,-695,-25541,-73938,123007
319187000,-224,819,-707,-21984,-71862,100671
319206000,-163,868,-722,-17725,-71770,88076
319225000,-162,850,-695,-17221,-69343,84702
319244000,-230,867,-682,-15282,-63297,84641
319263000,-245,893,-691,-12824,-56549,85435
319282000,-176,877,-721,-7511,-51129,80320
319301000,-156,803,-674,-809,-52381,62137
319320000,-203,800,-686,8366,-51145,45267
319339000,-235,797,-715,13190,-44839,42045
319358000,-125,782,-673,16763,-38045,43923
319377000,-97,751,-656,23328,-38137,33557
319396000,-175,748,-722,29282,-33954,21465
319415000,-191,711,-755,32290,-24900,15374
319434000,-145,666,-726,34045,-14732,9526
319453000,-71,666,-719,35938,-9450,1465
319472000,-135,696,-734,37648,-3419,-1877
319491000,-171,653,-729,38061,5083,-7725
319510000,-180,623,-712,40335,9435,-26534
319529000,-223,634,-745,39786,15755,-42030
319548005,-278,653,-781,37450,25389,-51648
319567000,-347,589,-817,30854,37770,-56595
319586000,-232,654,-739,29923,44793,-79694
319605000,-199,777,-818,30839,48839,-91877
319624000,-146,750,-837,30503,55969,-92595
319643000,-191,709,-866,25893,60702,-100106
319662000,-138,759,-855,27541,63862,-111053
319681000,-86,805,-868,25129,70106,-107190
319700000,-9,896,-864,30305,73603,-92137
319719000,-35,762,-882,28458,82320,-64778
319738000,-138,531,-891,26671,83679,-59893
319757000,-300,460,-967,27954,79694,-72931
319776000,-447,428,-1005,23908,86549,-77740
319795000,-634,421,-984,14106,95709,-84122
319814000,-702,362,-923,11221,111022,-116427
319833000,-798,362,-848,6595,121007,-162076
319852000,-636,371,-827,3862,136580,-200931
319871000,-386,370,-730,-7954,151954,-218931
319890000,3999,2106,2573,97755,-133114,-243755
319909001,600,2424,-962,71572,-158381,-177160
319928000,-875,1200,-1768,-37893,113145,157984
319947000,-62,27,-1031,-55938,106290,163358
319966000,129,59,-184,-31297,17603,47511
319985000,11,400,-1054,10061,7908,-9480
320004000,-45,618,-1178,-1022,24427,42503
320023000,80,264,-846,-3099,20259,68610
320042000,195,190,-687,-259,-1816,32656
320061000,125,433,-766,4671,-21282,10793
320080000,17,519,-802,778,-24961,21923
320099000,-17,527,-708,-5908,-29526,39328
320118000,4,492,-644,-10335,-39129,43465
320137000,-45,516,-682,-15022,-51770,41984
320156000,-43,511,-732,-22641,-59755,45877
320175000,-71,583,-771,-27251,-64641,49923
320194000,-133,592,-867,-32320,-66167,55465
320213000,-158,569,-909,-36015,-63328,60870
320232000,-116,567,-891,-39145,-64793,60824
320251000,-117,598,-893,-41343,-67068,63893
320270000,-123,632,-889,-42625,-68366,67877
320289000,-172,647,-918,-42763,-69389,69297
320308000,-155,647,-905,-42259,-69099,67190
320327000,-119,658,-910,-39832,-68396,64442
320346000,-85,709,-911,-39923,-64916,68916
320365000,-109,745,-940,-40305,-57938,79022
320384000,-87,706,-924,-42030,-49526,87022
320403000,-37,725,-903,-40030,-46183,83664
320422000,-44,764,-929,-36229,-42992,81251
320441000,-31,783,-904,-32625,-37175,83709
320460000,-8,760,-890,-30687,-30625,88213
320479000,44,744,-883,-28717,-26625,90427
320498000,64,704,-855,-26335,-26061,87877
320517000,99,663,-836,-24641,-25160,80977
320536000,89,667,-901,-23526,-21648,78122
320555000,125,643,-914,-25175,-20137,77679
320574002,134,600,-940,-27083,-19862,73465
320593000,140,591,-944,-27267,-21068,58213
320612000,107,656,-995,-24916,-15282,47007
320631000,117,727,-1014,-20305,-4015,46916
320650000,127,704,-1015,-14366,8305,50656
320669000,101,612,-1009,-8305,18671,49358
320688000,122,581,-958,-366,20641,32656
320707000,58,681,-992,10290,22687,17312
320726000,46,761,-1017,21099,28854,13526
320745000,37,794,-1001,32885,35160,11343
320764000,32,774,-941,44687,39221,3450
320783000,9,740,-905,55908,41160,-11496
320802000,-65,782,-913,66961,44519,-27419
320821000,-151,783,-902,75877,54229,-38091
320840000,-211,757,-834,83908,65297,-52091
320859000,-262,713,-822,91709,74259,-73465
320878000,-319,699,-783,99450,85038,-98824
320897000,-384,717,-746,104091,100595,-126106
320916000,-418,766,-708,107679,116396,-154015
320935000,-384,663,-616,105618,130992,-185129
320954000,-349,579,-523,102854,137587,-232320
320973000,-234,527,-370,91694,133969,-289343
320992000,-229,697,-345,72793,139526,-316702
321011000,-86,880,-276,48137,146748,-315572
321030000,1282,274,302,21984,139771,-365969
321049001,2316,475,-1716,193740,-131755,-470580
321068000,-1156,2812,-1356,26427,-170183,-94030
321087000,-682,1255,-602,-54549,72992,168534
321106000,31,359,-1103,-44656,111343,148061
321125000,429,392,-442,-41511,-4534,41251
321144000,270,742,-535,-27603,-38824,-5114
321163000,222,899,-972,-31786,-11389,49893
321182000,227,662,-811,-34885,-15664,91801
321201000,305,513,-519,-40671,-34977,90549
321220000,351,483,-523,-39709,-59496,72183
321239000,262,686,-717,-32992,-73862,64076
321258000,188,820,-718,-31816,-81786,79679
321277000,178,803,-671,-29603,-86061,96045
321296000,153,740,-664,-27923,-92015,102824
321315000,100,686,-663,-27221,-100564,99480
321334000,86,690,-694,-26748,-107816,96809
321353000,19,688,-748,-28274,-108473,100854
321372000,-4,675,-766,-32625,-104824,108778
321391000,-8,663,-799,-34106,-101419,109099
321410000,-21,604,-887,-36381,-99358,101053
321429000,-45,559,-973,-37511,-96000,88045
321448000,-84,558,-1079,-36763,-88488,80519
321467000,-64,532,-1149,-33908,-75465,74503
321486000,-86,560,-1212,-25893,-63435,65923
321505000,-107,603,-1247,-15435,-47282,62549
321524000,-66,572,-1220,-5450,-30564,61053
321543000,-71,567,-1171,4732,-16335,56198
321562000,26,537,-1062,15557,-9740,44152
321581000,1,555,-1064,25526,-5221,37175
321600000,7,458,-1002,29099,-30,32870
321619000,48,438,-935,33450,-1557,19175
321638000,-20,475,-986,35679,-2183,7404
321657000,-26,482,-979,36870,-91,-1801
321676000,-54,524,-1007,39251,1847,-9679
321695000,-109,544,-1008,41679,8137,-15435
321714001,-94,517,-980,43160,14274,-24778
321733000,-84,495,-969,42656,20213,-35770
321752000,-38,485,-957,40793,26091,-44152
321771000,7,500,-927,38015,30091,-50427
321790000,35,520,-950,35328,34549,-50458
321809000,45,517,-955,33282,37816,-49984
321828000,33,449,-972,31908,37129,-55083
321847000,-40,452,-1028,32091,35328,-63755
321866000,-119,449,-1071,31938,38366,-69358
321885000,-227,449,-999,31068,41648,-79053
321904000,-375,442,-999,31679,53923,-92977
321923000,-474,469,-977,32717,62045,-119862
321942000,-602,488,-952,34106,79022,-150778
321961000,-725,569,-953,33954,103404,-174870
321980000,-653,530,-864,29038,126244,-195694
321999000,-473,410,-734,22748,140061,-237251
322018000,-323,414,-575,16137,136183,-292488
322037000,-110,542,-568,1832,128213,-320748
322056000,3999,3999,3719,144045,-234351,-134381
322075000,153,1622,-2270,52396,-111954,-143374
322094000,-788,1082,-1274,-52290,-14824,150167
322113000,164,-121,-365,-44564,61709,182229
322132000,270,-78,-576,-60305,43725,61114
322151000,216,167,-1018,-6564,-46717,-38671
322170000,114,711,-861,-8534,-41786,-9480
322189000,156,601,-781,-23618,-8244,46778
322208000,241,336,-730,-25709,-12167,52045
322227000,230,453,-709,-21923,-37007,34687
322246000,157,599,-688,-21358,-51068,29969
322265000,135,620,-689,-21618,-57358,33343
322284000,73,678,-770,-21358,-66534,41251
322303000,39,681,-814,-22534,-74473,54106
322322000,32,629,-795,-22885,-82290,62519
322341000,22,591,-909,-21603,-88748,63755
322360000,20,568,-986,-20381,-95633,62992
322379000,-12,576,-975,-16748,-100671,57923
322398000,-51,578,-1015,-13694,-100351,54351
322417000,-72,560,-1096,-14183,-96137,56000
322436000,-101,567,-1184,-14396,-84793,64045
322455000,-86,535,-1173,-16213,-68687,73007
322474000,-57,510,-1110,-15755,-55969,74412
322493000,-51,546,-1113,-12961,-43664,73038
322512000,-38,542,-1088,-11603,-34122,74335
322531000,-96,542,-1075,-8290,-23801,75099
322550000,-104,490,-1068,-7603,-14320,74763
322569000,-64,487,-1035,-4977,-9282,70137
322588000,-76,477,-1022,-4183,-5725,70229
322607000,-44,398,-990,-3877,-1587,63404
322626000,-60,403,-1013,-1312,-351,50595
322645000,-76,455,-996,427,-687,42641
322664000,-102,495,-972,2335,3145,40900
322683000,-98,523,-980,6137,8137,38427
322702000,-39,493,-931,9267,8824,31282
322721000,-29,490,-942,12931,9450,21847
322740000,-18,494,-918,14305,8351,16198
322759000,-31,488,-932,15160,10656,12961
322778000,-21,539,-909,15740,10015,10366
322797000,41,571,-880,16732,8992,6000
322816000,51,596,-888,19587,5496,1297
322835000,12,602,-896,21541,3725,-900
322854000,-26,578,-948,24015,3893,-7603
322873000,-35,556,-908,26061,3557,-14396
322892000,-22,554,-944,26793,5053,-21206
322911000,-16,510,-961,28091,6412,-29160
322930000,-41,498,-964,29725,6061,-37374
322949000,-131,532,-1010,31496,12534,-40519
322968000,-169,504,-991,30900,23099,-40061
322987000,-181,409,-949,29145,30290,-50137
323006000,-229,335,-952,28717,30656,-74885
323025000,-300,362,-960,29404,33160,-106335
323044000,-466,522,-1034,31709,46259,-126885
323063000,-558,602,-1027,30809,68015,-134000
323082000,-404,438,-833,27740,83587,-157129
323101000,-340,338,-780,26702,85709,-205465
323120000,-374,403,-756,17755,86244,-243374
323139000,-313,430,-752,1404,93419,-257664
323158000,361,308,-662,-21816,106396,-256335
323177000,3999,2674,2073,88580,-111755,-127816
323196000,587,1982,-1630,46198,-136503,-105480
323215000,-552,800,-1037,-58778,5404,129679
323234000,-41,368,-935,-29435,44732,160916
323253000,133,120,-800,-41786,23038,108000
323272000,167,210,-766,-16396,-32900,36900
323291000,53,526,-702,-12595,-40717,20259
323310000,-41,569,-928,-18656,-33603,50687
323329000,33,539,-844,-20931,-40473,66946
323348000,30,539,-736,-23129,-52656,65557
323367000,37,519,-796,-25587,-61511,56763
323386000,-5,558,-798,-27572,-71679,51267
323405000,-55,617,-827,-30916,-71847,60870
323424000,-89,570,-877,-35587,-69633,72213
323443000,-98,531,-889,-38732,-72534,73572
323462000,-69,507,-868,-41496,-75511,70839
323481000,-96,561,-900,-41297,-76595,69709
323500000,-113,580,-927,-41862,-74595,74839
323519000,-123,553,-956,-42030,-72839,77679
323538000,-155,573,-963,-40274,-70427,77770
323557000,-89,541,-940,-37877,-70183,72351
323576000,-139,594,-1006,-31740,-67832,72091
323595000,-139,614,-1037,-27679,-60809,77511
323614000,-140,581,-1041,-22748,-56076,78702
323633000,-176,577,-1041,-17664,-49312,79801
323652000,-129,590,-1007,-10412,-45083,76320
323671000,-119,573,-1002,-3038,-40000,74458
323690000,-101,545,-1012,1419,-36473,73358
323709000,-65,494,-987,5786,-34793,64335
323728000,-94,510,-990,8717,-33312,54793
323747000,-81,518,-975,11618,-28396,52061
323766000,-82,566,-986,13648,-22091,54351
323785000,-74,574,-958,14717,-17404,54320
323804000,-88,511,-929,14015,-11755,49206
323823000,-83,516,-986,13984,-8549,34732
323842000,-62,569,-973,17038,-8274,21770
323861000,-94,668,-1012,20473,-2335,21374
323880000,-104,642,-1007,20625,7954,27816
323899000,-59,521,-982,20274,12183,24320
323918000,-46,509,-972,20396,11541,11954
323937000,-64,577,-956,20870,12793,2946
323956000,-51,644,-940,22076,16793,3160
323975000,-93,621,-937,20870,23404,6687
323994001,-76,587,-911,22549,25694,1847
324013000,-106,603,-907,23938,26900,-6961
324032000,-80,608,-903,23877,30030,-12442
324051000,-65,604,-880,25282,30961,-17633
324070000,-49,575,-883,26229,32122,-21908
324089000,-54,560,-865,26167,32061,-24610
324108000,-71,503,-897,25328,37419,-27618
324127000,-88,487,-911,24091,38015,-35618
324146000,-145,481,-911,25175,39038,-50076
324165000,-213,532,-901,26793,42931,-66213
324184000,-299,563,-903,29465,49129,-83404
324203000,-400,604,-911,34458,59129,-102839
324222000,-436,511,-879,34610,72137,-127679
324241000,-400,408,-845,32534,82061,-163114
324260000,-421,401,-793,26045,85938,-200366
324279000,-357,402,-765,17083,93206,-236595
324298000,-165,329,-662,2015,94641,-269954
324317000,767,518,-809,-8305,93206,-223526
324336000,1060,1049,-412,78015,-15221,-260015
324355000,-468,1799,-1597,36595,-93145,-105038
324374000,-149,828,-1398,-45526,11038,123832
324393000,-133,352,-925,-27053,20351,157557
324412000,100,409,-647,-19480,473,121053
324431000,165,373,-675,-9297,-27984,75221
324450000,88,359,-787,-5511,-50305,48183
324469001,-54,491,-848,-7099,-59435,46519
324488000,-20,548,-936,-12061,-65312,68305
324507000,1,566,-821,-13725,-66091,81206
324526000,-48,560,-873,-15816,-65526,87679
324545000,-43,490,-896,-19099,-64564,89893
324564000,-5,455,-879,-20534,-68412,81557
324583000,-51,482,-928,-21083,-71022,77358
324602000,-107,516,-978,-22961,-68366,82122
324621000,-86,492,-949,-25129,-63511,87740
324640000,-66,468,-969,-25618,-64870,85923
324659000,-41,443,-942,-26442,-66916,79877
324678000,-92,494,-963,-23847,-66992,73450
324697000,-117,495,-968,-22610,-63022,70717
324716001,-166,520,-991,-19343,-57450,68809
324735000,-131,520,-973,-16198,-53679,64625
324754000,-119,512,-972,-12870,-50916,58534
324773000,-135,505,-991,-9938,-45603,57175
324792000,-102,450,-939,-10458,-40366,58061
324811000,-78,430,-927,-10259,-37022,53099
324830000,-97,468,-936,-10198,-35862,47816
324849000,-77,454,-915,-9725,-35893,41114
324868000,-126,466,-946,-9709,-34458,33160
324887000,-148,466,-934,-10809,-32610,25603
324906000,-201,540,-962,-10793,-27694,17770
324925000,-259,629,-984,-9480,-18824,14702
324944000,-210,615,-994,-7877,-11083,10259
324963000,-191,599,-989,-4183,-6015,-1206
324982000,-186,608,-995,-809,-2854,-12732
325001000,-184,631,-1031,2274,4183,-16900
325020000,-116,644,-1011,4778,10167,-15786
325039000,-85,636,-1007,8824,15114,-12656
325058000,-83,616,-992,12885,19007,-11480
325077000,-99,614,-994,18015,21038,-13709
325096000,-69,577,-978,20519,23603,-13007
325115000,-49,571,-994,23358,25618,-11053
325134000,-33,542,-927,24656,23206,-8183
325153000,-62,526,-890,26045,22961,-8992
325172000,-79,489,-887,26122,22458,-15984
325191000,-117,479,-908,25603,21755,-26183
325210000,-191,497,-925,23664,24992,-29603
325229000,-235,500,-890,19816,31435,-29923
325248000,-254,449,-835,13145,36885,-35022
325267000,-327,416,-788,4977,41282,-52595
325286000,-390,361,-749,-6167,42992,-80946
325305000,-519,397,-752,-17694,49541,-112763
325324000,-557,495,-744,-32564,61770,-133771
325343000,-521,521,-732,-48687,80793,-142137
325362000,-271,399,-602,-64809,79496,-164870
325381000,250,459,-505,-69572,53465,-195648
325400000,2926,566,271,-61083,-105465,-236320
325419000,662,2622,-1371,4198,-139343,-139404
325438000,-548,1590,-1601,-16198,-8961,71694
325457000,-384,572,-958,-15328,46839,158351
325476000,29,23,-719,-36549,23022,74732
325495000,84,274,-772,15526,-18687,33679
325514000,106,485,-906,11022,-21297,54061
325533000,64,318,-689,213,-23358,86427
325552000,-10,321,-686,-2259,-36641,73404
325571000,-86,485,-775,-7709,-43740,71206
325590000,-41,535,-740,-12778,-47190,74931
325609000,-29,488,-718,-19404,-52564,72900
325628000,-65,335,-716,-29679,-55053,65175
325647000,-213,507,-722,-34473,-59007,46778
325666000,-271,656,-786,-37832,-55374,42335
325685000,-195,712,-837,-41770,-46274,51832
325704000,-162,623,-823,-44961,-41435,55282
325723000,-99,461,-727,-49770,-46213,37022
325742000,-234,670,-791,-46045,-52732,10748
325761000,-251,848,-871,-40061,-48290,9114
325780000,-210,898,-905,-41083,-36213,27435
325799000,-157,787,-874,-40335,-28595,44305
325818000,-105,651,-733,-38137,-28106,35419
325837000,-155,697,-749,-33770,-35206,12625
325856000,-168,785,-819,-29358,-36442,3374
325875000,-166,850,-850,-24244,-33480,9083
325894000,-203,818,-832,-21587,-25984,20091
325913000,-218,765,-799,-18305,-18564,25969
325932000,-187,677,-741,-18183,-17770,14274
325951000,-176,721,-750,-13053,-21465,-3862
325970000,-200,806,-776,-10198,-20030,-8015
325989000,-248,854,-807,-7374,-11923,1603
326008000,-235,752,-757,-8106,-4152,11160
326027000,-245,684,-720,-7801,412,5251
326046000,-184,695,-678,-6595,-1816,-9297
326065000,-206,779,-735,-4549,-2717,-17007
326084000,-247,812,-754,-1938,2274,-12076
326103000,-241,771,-711,-1801,7679,-9297
326122000,-218,719,-682,-1541,11801,-9419
326141000,-165,720,-661,-2366,11221,-15206
326160000,-187,773,-679,-748,10137,-19603
326179000,-186,811,-682,-458,8870,-20488
326198000,-170,802,-687,1190,7694,-21374
326217000,-176,772,-700,732,7221,-21847
326236000,-114,751,-677,-519,4916,-21557
326255000,-147,797,-656,-1435,3083,-18900
326274000,-210,780,-665,-3526,8412,-12656
326293000,-253,719,-686,-6244,12610,-13267
326312000,-308,661,-670,-10320,14732,-24748
326331000,-339,666,-662,-14167,16671,-38091
326350000,-511,807,-764,-15129,28717,-48030
326369000,-695,976,-848,-10519,49603,-49618
326388000,-633,859,-820,-11511,69450,-54717
326407000,-644,687,-782,-16656,86824,-75099
326426000,-556,692,-740,-10717,93557,-108656
326445000,-566,656,-716,-13358,106458,-128839
326464000,-373,570,-678,-21068,111496,-142793
326483000,828,763,-362,-23236,86824,-127725
326502000,796,907,-735,37832,59343,-89603
326521000,-316,1161,-1210,12809,-5923,-3129
326540000,-169,702,-786,-28213,10687,78641
326559000,-129,268,-723,-24610,29251,95847
326578000,-63,454,-487,-23862,-18946,37816
326597000,-147,670,-756,10549,-40030,-610
326616000,-288,865,-913,15175,-28305,28351