# IKS01A3 
 
time[us],acc_x[mg],acc_y[mg],acc_z[mg],gyro_x[mdps],gyro_y[mdps],gyro_z[mdps]
139843000,711,-510,-193,-10595,16061,-57145
139862000,829,-443,-171,-7175,17129,-61725
139881000,905,-325,-237,-427,13862,-79007
139900000,823,-238,-274,12946,11709,-63389
139919000,809,-270,-195,20106,12335,-29389
139938000,801,-327,-107,28198,12687,18870
139957000,854,-409,-71,31083,10427,58106
139976000,917,-500,-58,32305,5312,76809
139995000,917,-558,-102,31526,1389,74152
140014000,893,-611,-113,30610,-1587,61190
140033000,746,-573,-194,32870,-809,50549
140052004,611,-475,-209,35954,488,53572
140071000,527,-285,-214,45969,2732,73312
140090000,486,-29,-273,72793,13832,80412
140109000,565,-152,-24,111557,23770,116458
140128000,447,-190,125,142824,35053,199755
140147000,488,-392,299,169496,47908,302503
140166000,-393,-950,328,172427,61053,382793
140185000,-45,-1502,666,102610,64000,321694
140204000,1168,-3293,1337,34122,29358,71725
140223000,1132,-2948,643,-64763,8213,-173541
140242000,604,-1229,507,-104473,26809,-172610
140261000,633,-1050,433,-137801,46427,-62503
140280000,862,-706,261,-145328,26946,-34732
140299000,935,50,-111,-95679,16213,-66045
140318000,756,179,-659,-14656,-4503,-47099
140337000,662,-181,-247,25282,-21419,104732
140356000,433,-805,317,25709,-29587,287068
140375000,-105,-1426,599,-5358,-8702,321832
140394000,372,-2301,741,-68106,8213,175709
140413000,799,-2631,602,-128412,2335,-75587
140432000,193,-1592,458,-160503,14732,-171832
140451000,47,-1065,244,-182992,25343,-106366
140470000,286,-1060,79,-190503,29511,-51664
140489000,451,-847,-39,-180091,22091,-44656
140508000,590,-604,-103,-161389,5541,-61328
140527000,614,-444,-210,-142824,-9587,-79022
140546000,477,-371,-288,-121236,-20198,-71557
140565000,369,-345,-288,-103572,-18946,-43541
140584000,391,-382,-308,-87755,-16488,-12091
140603000,471,-421,-288,-74259,-14916,1251
140622000,528,-490,-279,-61572,-16305,-9419
140641000,522,-556,-302,-49068,-16106,-38671
140660000,542,-600,-319,-35877,-18152,-94946
140679000,514,-574,-325,-18320,-12809,-159557
140698000,475,-398,-386,2564,-11053,-224641
140717000,291,160,-473,38702,3541,-271542
140736000,105,914,-862,87969,30977,-250244
140755000,-29,1444,-1075,149068,57648,-128916
140774000,31,684,-496,198091,80793,37175
140793000,224,224,-194,262427,100778,142809
140812000,304,-526,118,296396,127984,187328
140831000,943,-1493,859,278396,119343,138732
140850000,838,-2170,1348,243862,127389,62488
140869000,1259,-3511,1986,63954,44916,-95557
140888000,1301,-3129,1564,-88778,6473,-120748
140907000,1174,-1505,180,-143236,-1099,-97862
140926000,948,-147,-65,-139572,-27358,-60427
140945000,761,1312,-1053,-56305,-2229,3053
140964000,802,1540,-1546,49160,-37816,127145
140983000,774,-350,-624,121419,-24687,250687
141002000,589,-980,-168,151557,-41160,318687
141021000,-187,-1619,684,91221,-42656,356625
141040000,309,-3090,1667,-13251,-41022,242061
141059000,557,-3211,668,-152396,-19847,66366
141078000,609,-1847,71,-179541,15740,-98580
141097000,400,-819,-81,-188305,27129,-119816
141116000,419,-631,-232,-177908,22717,-66229
141135000,431,-859,-404,-164717,23282,-55877
141154000,633,-827,-344,-134946,16030,-92778
141173000,774,-607,-177,-109053,2595,-109801
141192000,696,-498,-221,-90793,-7022,-75404
141211000,680,-680,-170,-92717,-10076,-13145
141230000,682,-746,-214,-92488,-9022,18045
141249000,652,-765,-263,-92381,-9389,8748
141268000,586,-821,-278,-88885,-8229,-31893
141287000,559,-788,-255,-81755,-3053,-80122
141306000,429,-669,-235,-73480,1297,-98152
141325000,395,-565,-227,-68748,9145,-91312
141344000,484,-562,-263,-60595,8320,-96488
141363000,531,-588,-312,-55480,15526,-121893
141382000,575,-557,-347,-47190,13587,-143175
141401000,577,-365,-350,-42015,10213,-154396
141420000,477,-48,-411,-21328,4885,-152244
141439000,302,280,-607,5297,1938,-147465
141458000,183,737,-741,52900,10427,-137496
141477000,-43,1350,-887,125328,27557,-62030
141496000,-199,1193,-644,189267,41709,116977
141515000,-43,571,73,240961,30992,376564
141534000,176,-277,366,297114,-16793,500259
141553000,-400,-2662,907,243664,-62839,500259
141572000,-511,-2985,1146,150488,-69007,500259
141591000,127,-2984,1814,33572,-18961,63954
141610000,85,-3655,509,-109038,74213,-283190
141629000,352,-1492,157,-105496,70198,-332549
141648000,67,-30,-468,-101160,70091,-238870
141667001,334,1478,-1403,-41740,67862,-144198
141686000,775,516,-1416,50977,49709,7267
141705000,1291,255,-218,147725,-9389,90534
141724000,283,-684,-257,174396,-34900,275175
141743000,-581,-2241,615,88961,-58717,330641
141762000,332,-3555,1801,-30167,-44824,176580
141781000,596,-3222,653,-134641,351,-108641
141800000,130,-1650,86,-155496,22793,-215328
141819000,49,-672,-106,-151633,39526,-174106
141838000,218,-492,-473,-144473,50763,-79480
141857000,379,-682,-609,-126595,37419,-27083
141876000,582,-788,-477,-97526,24335,-36213
141895000,692,-535,-365,-75038,4427,-51923
141914000,603,-624,-325,-61862,-15190,-31725
141933000,451,-890,-280,-63053,-20702,2870
141952000,394,-938,-288,-64473,-15755,25786
141971000,417,-979,-268,-67664,-10610,24045
141990000,385,-947,-283,-67954,-5511,671
142009000,345,-973,-291,-68473,-1465,-26381
142028000,317,-980,-312,-69816,3068,-40045
142047000,327,-837,-341,-68717,6824,-36641
142066000,339,-741,-402,-70122,11022,-21877
142085000,453,-806,-390,-70671,11557,-23603
142104000,528,-837,-408,-69419,11145,-54564
142123000,504,-750,-453,-64580,12076,-88977
142142000,490,-612,-445,-57007,13114,-110137
142161000,510,-504,-511,-50992,10671,-114061
142180000,494,-441,-565,-44412,8885,-111236
142199000,515,-404,-599,-32946,9404,-112793
142218000,503,-348,-625,-22351,10351,-102259
142237000,474,-171,-630,-5740,13587,-91083
142256000,352,179,-761,17496,21496,-76641
142275000,219,785,-996,64503,39572,-89160
142294000,77,1526,-1270,141511,70290,-80106
142313000,-15,1110,-818,204351,89648,34152
142332001,322,412,60,241969,74625,284076
142351000,757,-512,583,288992,-3190,500259
142370000,-652,-2539,690,233709,-32488,500259
142389000,-722,-4000,1416,97083,-53801,323419
142408000,1011,-4000,1444,-50534,-14000,-257282
142427000,367,-2042,149,-126305,23755,-336503
142446002,-92,435,-400,-90183,41954,-298381
142465000,147,1410,-1903,-38320,53633,-121145
142484000,472,-28,-1047,10076,52702,63877
142503000,1266,-335,-358,93129,20045,107496
142522000,569,-618,-414,103007,-5022,212137
142541000,-196,-1462,133,43770,-37450,245465
142560000,504,-3069,1057,-23175,-43160,124656
142579000,566,-2279,415,-93267,-26992,-63297
142598000,360,-636,-422,-75923,-3190,-124671
142617000,114,-4,-825,-58809,14305,-84259
142636000,165,-936,-797,-57664,25236,17267
142655000,447,-1354,-289,-60015,22870,10610
142674000,544,-993,-217,-48702,23038,-26366
142693000,543,-761,-193,-48748,2961,-35633
142712000,540,-1037,-206,-64610,-11541,-20167
142731000,451,-1191,-261,-73587,-12870,-14381
142750000,367,-963,-257,-73358,-5297,-13160
142769000,418,-762,-298,-74045,-946,-6000
142788000,464,-800,-329,-76320,-534,-4702
142807002,430,-885,-347,-76244,1984,-9053
142826000,417,-840,-334,-75465,4977,-16351
142845000,371,-767,-323,-73526,7603,-17587
142864000,375,-735,-330,-73053,10702,-14076
142883000,423,-714,-393,-70152,12671,-16961
142902000,393,-723,-388,-70198,14000,-15603
142921000,344,-717,-436,-67389,18091,-19847
142940000,398,-621,-467,-60366,21007,-38839
142959000,464,-535,-511,-52427,22000,-61419
142978000,452,-484,-571,-44503,23725,-78549
142997000,456,-429,-666,-34458,29480,-85129
143016000,592,-363,-726,-21740,31374,-105557
143035000,672,-219,-814,-8290,33236,-133007
143054000,646,73,-862,11847,29832,-146183
143073000,619,364,-989,43816,31267,-150458
143092000,557,508,-1045,86213,38213,-161435
143111000,475,751,-1024,137496,56702,-136396
143130000,512,738,-862,188519,64992,-68931
143149000,447,510,-425,230778,69465,62045
143168000,450,435,-51,291847,54549,251740
143187000,484,-232,644,333404,1709,500259
143206000,-427,-2100,1242,300458,-52931,500259
143225000,-874,-4000,2191,157709,-102229,382931
143244000,1082,-4000,1858,-28091,-27557,-65954
143263000,-187,-2287,87,-155358,31679,-335022
143282000,-77,461,-191,-104748,86167,-359404
143301000,199,983,-1461,-45923,83862,-204793
143320000,837,-253,-638,1587,57770,17587
143339000,1010,-312,-251,58961,22625,136137
143358000,310,-822,9,42748,-1358,163022
143377000,469,-1716,575,9923,-32061,129328
143396000,634,-2018,706,-58732,-27984,13038
143415000,467,-938,-201,-51358,-839,-49114
143434000,325,-255,-592,-30381,18366,-45847
143453000,377,-729,-389,-24000,22183,23160
143472000,386,-1047,-109,-17572,29679,48503
143491000,227,-953,68,-14931,36106,30809
143510000,225,-1015,188,-26381,40091,13419
143529000,484,-1194,199,-46870,46076,-14473
143548000,492,-1100,-16,-58763,49511,-47007
143567000,322,-854,-65,-58549,57083,-68763
143586000,259,-718,1,-51175,71801,-73267
143605000,242,-760,-32,-47328,84396,-65832
143624000,379,-716,123,-41328,86061,-62061
143643000,270,-694,6,-37160,98137,-46488
143662000,328,-696,104,-34152,99465,-29877
143681000,318,-835,66,-34793,105984,-18030
143700000,439,-858,163,-36992,106977,-15114
143719000,428,-891,201,-38717,105893,-10809
143738000,532,-879,197,-40229,106412,-6198
143757000,528,-964,136,-44442,100824,-1145
143776001,552,-962,108,-48687,98458,15618
143795000,690,-1055,92,-56015,92106,29572
143814000,809,-1081,105,-60702,82961,23221
143833000,708,-1015,-12,-59603,78061,931
143852000,703,-873,-80,-55007,81969,-8396
143871000,1104,-955,-48,-58732,68778,-35083
143890000,1190,-897,-33,-60519,50885,-72045
143909000,1026,-721,-221,-60229,35801,-98549
143928000,803,-617,-344,-57358,29847,-83786
143947001,1085,-455,-244,-52137,26335,-53618
143966000,1288,-451,-196,-47374,10198,-58641
143985000,1158,-510,-278,-42015,-1694,-71389
144004000,1086,-612,-253,-33694,-13404,-86671
144023000,1156,-598,-184,-29694,-24702,-78290
144042000,1098,-423,-245,-30595,-35954,-35053
144061000,982,-466,-264,-31083,-45847,412
144080000,986,-451,-286,-22732,-47923,-2595
144099000,960,-179,-317,-2809,-52091,-46778
144118000,701,506,-583,40870,-43190,-137297
144137000,333,1408,-706,103038,-26198,-111969
144156000,200,1324,-722,155801,-33038,71603
144175000,589,373,39,166687,-67755,367969
144194000,852,-1867,179,136091,-129297,500259
144213000,7,-3287,741,85816,-163160,412916
144232000,126,-3482,1233,-20748,-87648,8702
144251000,138,-3214,564,-109114,-36198,-246702
144270000,-142,-663,-208,-48412,18473,-255022
144289000,-286,286,-1172,-37633,30030,-165786
144308000,190,757,-579,-10122,26427,37511
144327000,843,221,-334,19083,16748,145480
144346000,732,-726,-59,24992,-8076,137129
144365000,340,-1583,118,6396,-13297,83496
144384000,479,-2026,400,-15343,-7572,-21862
144403000,518,-1592,105,-45633,2152,-93480
144422000,431,-1306,-278,-61679,6580,-88763
144441000,331,-1003,-321,-70473,19572,-65206
144460000,297,-765,-361,-72931,30870,-32763
144479000,350,-703,-296,-70503,45145,-12030
144498000,523,-750,-184,-69633,52625,-10854
144517000,494,-708,-221,-64274,59770,-25557
144536000,364,-651,-231,-62396,70534,-24656
144555000,500,-664,-144,-60580,82198,-13862
144574000,663,-725,-95,-60412,84061,-21938
144593000,707,-693,-103,-52778,82992,-43389
144612000,666,-613,-149,-43022,80732,-70290
144631000,600,-509,-197,-35114,81862,-68442
144650000,542,-513,-146,-32259,85129,-32412
144669000,705,-518,-67,-30992,88030,-1114
144688000,864,-481,-69,-25877,83816,5435
144707000,891,-486,-108,-16305,74503,-10274
144726000,830,-440,-148,-4610,66595,-30610
144745000,746,-298,-166,9374,63664,-29068
144764000,833,-77,-159,26885,61083,-26870
144783000,748,386,-221,64748,56992,-44702
144802000,382,975,-354,119221,59969,-19847
144821000,102,1081,-313,160687,67496,97618
144840000,222,777,-18,191221,50167,321297
144859000,532,-520,297,204931,-3419,500259
144878000,680,-2644,467,159007,-70503,500259
144897000,388,-4000,1198,94580,-90687,187679
144916000,670,-3612,1200,29038,-53832,-160854
144935000,437,-2226,435,-37267,-16076,-205419
144954000,207,-1112,-104,-22824,-3877,-146229
144973000,178,-608,-312,-47770,4305,-24320
144992000,700,-447,-26,-33786,-106,54473
145011000,1060,-706,130,-30137,-14931,47160
145030000,947,-830,206,-30045,-33847,-8229
145049000,736,-918,156,-31160,-48076,-39786
145068000,690,-1205,243,-41450,-59648,-51465
145087000,577,-1202,234,-45022,-63450,-40015
145106000,544,-1358,206,-63908,-67221,-9969
145125000,448,-1327,163,-72122,-63893,-16290
145144000,396,-1157,61,-76473,-56580,-44305
145163000,319,-1029,0,-85725,-47786,-40137
145182000,346,-842,-102,-90458,-40992,3984
145201000,340,-823,-111,-98931,-36427,60137
145220000,458,-688,-215,-96809,-33862,99343
145239000,557,-705,-249,-92885,-36763,65633
145258000,640,-948,-239,-88671,-43129,-24183
145277000,588,-774,-181,-73206,-35389,-137282
145296000,458,-644,-246,-63022,-28885,-206427
145315000,305,-286,-251,-42870,-18977,-191801
145334002,271,-150,-264,-33984,-10458,-90473
145353000,317,-113,-254,-15312,-3038,33129
145372000,542,-27,-168,9450,-12503,182824
145391000,502,-67,-133,35648,-29160,316030
145410000,346,-102,-248,69725,-34763,386137
145429000,352,-598,-207,78656,-42839,202854
145448000,222,-1007,-154,109435,-13862,-69190
145467000,300,-1356,-54,99770,25450,-299145
145486000,566,-1276,-126,104244,58412,-461542
145505000,367,-439,-208,111022,74702,-465221
145524000,255,552,-252,114183,64412,-143740
145543000,243,-298,-190,82122,47038,262931
145562000,299,-939,100,92076,7557,500259
145581000,640,-1611,164,104992,-44351,500259
145600000,633,-2830,62,31572,-78748,385404
145619000,657,-2178,832,34076,-57145,-50809
145638000,172,-2146,85,-47083,-13419,-352274
145657000,51,-841,-102,-6335,18580,-346412
145676000,-317,-958,-567,-27557,27145,-129206
145695000,73,-377,-175,-25068,23709,122351
145714000,816,-496,-53,-7297,-1511,164091
145733000,580,-1110,88,-5526,-21984,7358
145752001,407,-980,243,6793,-21160,-129083
145771000,351,-626,47,7343,-15374,-137938
145790000,255,-1011,-31,-9358,-16122,-28229
145809000,305,-1356,18,-20977,-10198,78610
145828000,489,-1582,29,-40854,-11526,80015
145847000,662,-1491,63,-51557,-14564,12442
145866000,658,-1462,0,-71618,-20015,-48549
145885000,542,-1351,-38,-85389,-21435,-79938
145904000,443,-1144,-113,-91435,-19129,-92381
145923000,394,-1003,-98,-95786,-17725,-85236
145942000,416,-887,-63,-97312,-16900,-73740
145961000,412,-812,-100,-92717,-13221,-83068
145980000,408,-762,-76,-89557,-12106,-85938
145999000,396,-719,-92,-83129,-9083,-81877
146018000,397,-716,-130,-80442,-10641,-67801
146037000,434,-661,-151,-72717,-10244,-50580
146056000,450,-623,-209,-64610,-9175,-43923
146075000,501,-661,-244,-59679,-8427,-41022
146094000,551,-665,-282,-53557,-6610,-40412
146113000,563,-685,-298,-49908,-4259,-38030
146132000,545,-591,-355,-44610,-381,-39435
146151000,480,-450,-363,-35679,4198,-34625
146170001,548,-383,-357,-25969,7801,-34015
146189000,580,-287,-363,-10366,8809,-36152
146208000,462,93,-382,17664,17312,-40580
146227002,365,322,-494,51114,25221,-32992
146246000,321,577,-364,88427,32473,28824
146265000,236,572,-294,121755,34625,137435
146284000,284,441,-161,160534,19022,307435
146303000,303,-244,-21,175389,-31251,500259
146322000,256,-1863,293,145618,-94061,500259
146341000,-195,-3145,161,95801,-101694,358778
146360000,-140,-2365,737,89969,-45221,-69923
146379000,55,-2608,127,-8045,18900,-323251
146398000,333,-1503,-43,14290,31557,-359755
146417000,145,-545,-539,20625,24702,-241740
146436000,-7,-434,-612,-8671,14290,13709
146455000,552,-673,-300,-2732,-1389,170610
146474000,859,-1219,-169,-2900,-24137,109770
146493000,677,-1563,-36,-16442,-38259,2671
146512000,585,-1782,72,-43847,-43557,-73251
146531000,477,-1703,-3,-73480,-43083,-91786
146550000,419,-1464,-208,-93221,-41358,-66076
146569000,453,-1346,-243,-108793,-40580,-43435
146588000,560,-1315,-176,-117984,-41786,-47541
146607000,590,-1185,-157,-120320,-41816,-84458
146626000,585,-1198,-142,-129526,-43816,-127847
146645000,551,-1088,-174,-132824,-43877,-152625
146664000,519,-970,-235,-139099,-44778,-148702
146683000,523,-812,-312,-141908,-44809,-138061
146702000,558,-697,-412,-144213,-46488,-126778
146721000,576,-574,-448,-141358,-47145,-127068
146740000,670,-490,-516,-132381,-46549,-155435
146759000,751,-355,-611,-118931,-46534,-205694
146778000,775,-279,-589,-97954,-52580,-263542
146797000,597,20,-714,-78641,-50290,-300931
146816000,375,513,-799,-46534,-42015,-289160
146835000,304,932,-867,-2732,-34549,-242916
146854000,324,797,-899,34900,-25221,-166351
146873000,399,462,-824,63374,-12396,-119251
146892000,477,344,-723,93312,3648,-101038
146911000,475,446,-722,124488,20580,-74916
146930000,389,463,-642,153160,32137,-24793
146949000,325,339,-538,180229,40106,23328
146968000,404,217,-328,205877,41145,57908
146987000,464,41,-120,234839,39664,89160
147006000,391,-14,27,272000,39755,129236
147025000,232,240,261,315862,24549,293160
147044000,238,-372,764,335877,-16549,450977
147063000,276,-1310,920,324122,-42824,449664
147082000,-180,-2391,1131,258702,-46885,310045
147101000,-46,-3249,1699,127511,-30610,135541
147120000,597,-4000,763,-34595,-12916,-127908
147139000,302,-1593,437,-113068,12885,-204335
147158000,-18,826,-695,-84290,45786,-197908
147177000,354,1109,-1724,12106,52824,-78091
147196000,1010,-793,-290,81740,33740,74870
147215000,1066,-1110,47,103282,3297,139129
147234000,216,-1456,65,44885,-2442,166977
147253000,565,-1827,611,-26259,-16213,41435
147272000,542,-1638,136,-63557,-10152,-103786
147291000,621,-641,-563,-42656,2198,-103725
147310000,394,-674,-550,-38320,8595,-19969
147329000,767,-1070,-135,-36152,4335,30274
147348000,717,-1275,-120,-36824,-2625,17847
147367001,304,-968,-151,-49236,18061,-13007
147386000,348,-666,-42,-57801,19129,-36366
147405000,657,-1022,35,-67633,10778,-37954
147424000,685,-1224,-108,-83282,6015,-52335
147443000,572,-987,-28,-87389,2076,-55129
147462000,544,-661,-107,-87068,1389,-33603
147481000,590,-583,-227,-85633,-824,-11435
147500000,659,-617,-390,-83175,1404,-8946
147519000,735,-806,-452,-79572,-2549,-19083
147538000,768,-780,-439,-75938,-1954,-31297
147557000,761,-743,-573,-70977,-5404,-43801
147576000,809,-649,-655,-64610,-10061,-50625
147595000,801,-583,-822,-60412,-12809,-51572
147614000,842,-629,-851,-53312,-17664,-47969
147633000,851,-664,-864,-46992,-22244,-46167
147652000,820,-549,-899,-38687,-25740,-40992
147671000,777,-425,-918,-28824,-26106,-27450
147690000,737,-427,-888,-15664,-28519,-17847
147709000,703,-377,-795,-366,-27496,-23664
147728000,609,-302,-879,22488,-22061,-43969
147747000,622,-202,-834,51145,-15526,-82656
147766000,537,-118,-793,86992,-4183,-127755
147785000,409,275,-771,139160,15923,-164167
147804000,297,370,-537,195709,39114,-124442
147823000,457,187,133,247114,49755,-24030
147842000,614,-228,843,282824,33190,122213
147861000,44,-981,1226,271068,33328,194625
147880000,559,-1549,1114,173862,-8106,125343
147899000,348,-2785,557,8473,-40885,72381
147918000,702,-2708,-62,-151190,1465,-71801
147937000,478,-592,-102,-155557,30366,-183129
147956000,382,787,-636,-86244,43526,-158519
147975000,709,230,-414,-11893,43312,-39832
147994000,780,-128,-159,37694,26870,66916
148013000,580,-213,-152,35603,16442,156473
148032001,767,-1099,81,9664,-16778,145801
148051000,946,-1649,-56,-33908,-18748,51603
148070000,843,-887,-281,-39022,870,-31114
148089001,773,-364,-338,-27832,6015,-12137
148108000,881,-690,-194,-22549,-900,46244
148127000,636,-1086,-187,-32671,1755,77709
148146000,607,-1163,-30,-62137,-4030,55725
148165000,807,-1385,103,-100961,-11526,30000
148184000,839,-1367,22,-133618,-17923,9740
148203000,736,-1152,-92,-149923,-13251,-6519
148222000,678,-918,-108,-155572,-11068,-17389
148241000,577,-702,-225,-155541,-9480,-21770
148260000,558,-582,-310,-149557,-8732,-19389
148279001,612,-694,-397,-144045,-6534,-19694
148298000,689,-687,-415,-138137,-5862,-27938
148317000,700,-617,-416,-134839,-8335,-24732
148336000,728,-561,-369,-133206,-11099,-19893
148355000,709,-511,-495,-123740,-17786,-35496
148374000,671,-548,-552,-121740,-18106,-47648
148393000,695,-434,-513,-116091,-21251,-70503
148412000,685,-406,-507,-110564,-29145,-86381
148431000,598,-231,-745,-100854,-28061,-116549
148450000,575,-50,-836,-86015,-21969,-139068
148469000,471,317,-766,-61694,-18076,-138641
148488000,269,695,-979,-26152,-8106,-138381
148507000,132,1280,-1227,16061,15343,-103404
148526000,189,1228,-1234,74335,33175,-64488
148545000,186,1005,-1056,122366,57496,7343
148564000,234,917,-752,167862,68503,110900
148583000,216,759,-589,221374,70091,253328
148602000,500,239,-187,263114,37847,419771
148621000,685,-1629,227,247740,-10244,361847
148640000,467,-3349,389,173312,-15282,218320
148659000,818,-3794,1724,39251,-412,-85160
148678000,578,-2533,751,-76351,37343,-197709
148697000,645,-586,-562,-71083,34412,-168381
148716000,284,825,-1463,-50946,65038,-127022
148735000,358,481,-1462,-1129,19419,11847
148754003,770,-18,-609,29648,30030,84442
148773000,735,-374,-583,55374,22977,118717
148792000,328,-847,-160,46809,27770,120320
148811000,158,-1165,150,29435,37801,70564
148830000,447,-1600,260,7160,59114,-7160
148849000,658,-1254,112,-27496,70244,-51664
148868000,597,-956,-137,-49160,71801,-36717
148887000,334,-728,-246,-60061,79007,-10732
148906000,387,-758,-176,-62320,83984,18534
148925000,666,-981,-49,-67633,81496,27740
148944000,896,-995,-94,-71297,70015,21282
148963000,776,-906,-338,-78106,64656,33954
148982000,711,-886,-312,-86961,59969,59801
149001000,946,-1044,-267,-92106,53877,61221
149020000,931,-997,-373,-94030,49068,29419
149039000,752,-807,-524,-94671,47801,9007
149058000,731,-736,-534,-93404,50839,-3709
149077000,931,-611,-506,-90778,53572,-15206
149096000,1076,-491,-448,-87007,43404,-42931
149115000,898,-408,-616,-90167,40015,-54778
149134000,689,-368,-693,-86381,45832,-44778
149153000,823,-235,-531,-77603,51343,-32427
149172001,838,-259,-419,-68854,53374,-35206
149191000,771,-273,-427,-61587,60824,-48152
149210000,1010,-295,-339,-53725,60946,-86427
149229000,960,-118,-416,-43297,67129,-107664
149248000,882,17,-348,-26549,65053,-118916
149267000,709,240,-382,-3862,74061,-106885
149286000,681,405,-342,20580,78229,-65557
149305000,787,296,-267,45496,77847,-15358
149324000,971,36,-261,63511,75404,-4000
149343000,1025,136,-188,84427,70809,-10824
149362000,635,594,-339,118854,77114,7664
149381000,382,1222,-471,165679,86961,57206
149400000,361,1153,-357,215679,83709,121358
149419000,473,772,-36,248778,80992,229114
149438000,1059,-320,540,261847,24977,404763
149457000,1125,-2003,754,227984,-33328,430977
149476000,805,-3060,1112,197236,-56244,202824
149495000,1019,-3136,1488,96106,-26137,-75801
149514000,660,-2721,568,6793,17190,-203557
149533000,249,-793,-57,16122,54458,-148824
149552000,160,-28,-483,17038,75786,-40381
149571000,407,39,-343,24152,57908,74076
149590000,663,-36,127,63633,47358,120564
149609000,509,-659,322,64030,33480,89984
149628000,475,-1096,586,57374,20000,53419
149647000,403,-1059,544,46290,34427,748
149666000,432,-637,309,49419,53740,-1251
149685000,476,-531,344,52641,63786,25938
149704000,385,-431,349,69938,74290,73435
149723000,384,-576,340,81832,83755,102748
149742000,558,-576,545,92091,78702,110305
149761000,794,-749,672,94183,66396,94412
149780000,850,-1006,694,85160,55435,34519
149799000,670,-1039,657,79893,56854,-6625
149818000,650,-1017,624,65893,62595,-41038
149837000,869,-919,688,53190,54564,-72778
149856000,827,-805,648,45755,42931,-78015
149875000,733,-788,520,42305,40091,-77267
149894003,839,-682,507,44992,37358,-80351
149913000,837,-641,406,46229,30061,-110580
149932000,883,-572,410,48473,22778,-148687
149951000,795,-609,354,50442,31267,-205832
149970000,732,-421,406,58152,37465,-212152
149989000,662,-323,423,56458,45786,-183480
150008000,676,-218,474,60290,47969,-147816
150027000,688,13,634,70687,42595,-111129
150046000,777,67,779,82900,26274,-54137
150065000,827,-36,910,95618,-3938,1053
150084000,696,-131,831,105679,-31450,66473
150103000,615,-103,722,114564,-46519,130091
150122000,318,-182,732,120564,-67984,202442
150141000,150,-275,665,122656,-49419,215068
150160000,254,-520,655,136351,-17221,175206
150179000,594,-650,1069,144244,20335,90000
150198000,974,-829,1348,133389,49496,-12412
150217000,1044,-892,1493,89190,36625,-41175
150236000,223,-274,1048,18671,31099,63251
150255000,-357,214,1117,-28625,-3770,99938
150274000,553,-1093,1020,-87725,-48274,38977
150293000,848,-913,901,-117801,-27114,-143511
150312000,543,855,775,-78580,-4473,-151236
150331000,665,866,503,-50458,-18519,40885
150350000,799,284,651,-7923,-21450,181450
150369000,117,-186,625,9603,-20625,264122
150388000,525,-478,963,13938,-31862,185908
150407000,713,-1235,1045,-27526,-33587,33099
150426000,519,-722,818,-41832,-4916,-77053
150445000,628,-373,868,-52839,2854,-85694
150464000,663,-382,960,-66610,-9877,-42122
150483000,574,-572,1012,-81709,-20870,1511
150502000,358,-489,924,-97450,-23770,38885
150521000,480,-324,874,-102549,-33633,58824
150540000,619,-502,761,-108076,-37557,62580
150559000,670,-488,681,-101832,-30061,55221
150578000,567,-474,649,-99175,-22335,42946
150597000,536,-467,565,-93832,-10534,28824
150616000,625,-533,599,-88366,-7587,519
150635000,695,-591,650,-83770,-7053,-20595
150654000,698,-565,606,-79740,-8824,-30625
150673000,626,-510,534,-74656,-8274,-27618
150692000,658,-488,489,-70335,-7984,-23679
150711000,660,-493,444,-63526,-9954,-26809
150730000,712,-515,428,-55083,-13282,-39328
150749000,653,-528,375,-46183,-14946,-51282
150768000,625,-465,352,-36946,-12885,-52381
150787000,594,-460,268,-28870,-11725,-56977
150806000,655,-433,238,-19862,-9145,-66183
150825000,588,-328,182,-5572,-8763,-70152
150844000,480,-243,86,16671,-6412,-74412
150863000,419,-89,11,49832,9893,-97893
150882000,395,252,-14,92381,29603,-105877
150901000,459,502,31,145114,47511,-66396
150920000,420,236,466,183206,69190,18870
150939000,703,51,929,228503,73297,152778
150958000,472,-375,1494,236030,53343,335175
150977000,164,-905,2072,174885,15236,374045
150996000,561,-2299,2194,40488,-43801,178183
151015000,922,-2795,1004,-85221,-39877,-57541
151034001,786,-589,828,-107969,778,-168778
151053000,641,745,379,-75068,4961,-136687
151072000,575,322,85,-34641,9435,11114
151091000,774,-457,418,11618,-5496,70167
151110000,355,-316,373,45984,6061,82580
151129000,518,-577,842,18625,-26030,82351
151148000,667,-1086,1022,-15984,-37694,64366
151167000,580,-1112,845,-50992,-25511,12000
151186000,528,-682,587,-52916,-1801,-47801
151205000,485,-592,625,-53954,11603,-47816
151224000,453,-712,701,-56290,15221,-23251
151243000,186,-712,720,-63221,24427,-9312
151262000,95,-620,782,-72305,32091,-16961
151281000,260,-731,791,-81343,44167,-29068
151300000,314,-713,777,-87709,60610,-61160
151319000,291,-599,703,-89190,79251,-92381
151338000,301,-504,739,-92351,97938,-113175
151357000,279,-548,766,-95450,108335,-131526
151376000,115,-604,758,-98045,120748,-147587
151395000,118,-592,917,-99221,133267,-154442
151414000,306,-475,1030,-99633,137297,-141251
151433000,322,-353,1108,-100305,130885,-118412
151452000,160,-305,949,-100717,127923,-85221
151471000,130,-320,860,-97526,127847,-43938
151490000,381,-353,909,-88946,124137,-10015
151509000,538,-258,879,-75694,115114,4152
151528000,574,-228,742,-63832,100229,18045
151547000,602,-254,639,-53587,83969,34152
151566000,727,-269,569,-38427,64732,51557
151585000,626,-299,504,-19816,50106,69038
151604000,629,-328,385,-2564,39847,81389
151623000,793,-308,405,15007,23099,81969
151642000,839,-344,266,33221,778,58213
151661000,624,-181,96,59526,-3725,21221
151680000,593,258,-6,98396,-4809,22763
151699000,533,660,-55,149618,-4595,125511
151718000,547,273,421,174259,-22778,305969
151737000,614,-589,1023,191603,-60809,500259
151756000,-1010,-2337,1187,142458,-45374,500259
151775000,52,-3013,2280,22366,-44030,199404
151794000,498,-1864,1561,-8442,-21297,-131771
151813000,147,-765,1296,-42198,-1145,-205114
151832000,-79,-249,866,-21114,2351,-123022
151851000,-119,-500,768,-28137,20015,4229
151870000,317,-310,598,7740,1694,10641
151889000,137,56,631,11068,-21450,12015
151908000,169,-406,896,-732,-37206,2015
151927000,353,-565,943,-824,-34900,-65328
151946000,190,99,643,30244,-22961,-79007
151965000,246,-232,717,37251,-14244,-11923
151984000,120,-654,936,39984,-14030,60549
152003000,-262,-828,1130,18519,-7251,78748
152022000,87,-1054,1229,-13770,-21496,24442
152041000,312,-788,1093,-23053,-34396,-37221
152060000,180,-561,764,-28702,-26824,-23145
152079000,197,-724,705,-35770,-12259,-19374
152098000,182,-628,717,-27877,-7847,-26335
152117000,157,-623,804,-36137,-10488,-30580
152136000,301,-702,895,-47938,-23450,-38488
152155000,361,-693,880,-53633,-34427,-43740
152174003,315,-599,791,-53664,-39343,-29465
152193000,345,-571,750,-51419,-41801,-12152
152212000,426,-511,753,-48580,-48167,2702
152231000,497,-585,797,-51862,-60030,9679
152250000,501,-679,783,-51587,-68320,7633
152269000,497,-677,730,-50259,-72854,-4595
152288000,469,-606,711,-47328,-72458,-10931
152307000,466,-587,639,-45633,-71832,-20534
152326000,442,-604,638,-42656,-73801,-31190
152345000,392,-625,497,-38671,-70595,-62015
152364000,340,-578,512,-28122,-61618,-118061
152383000,347,-54,398,2458,-50763,-96870
152402000,-31,534,124,36595,-45938,69664
152421000,117,159,77,56534,-48183,270458
152440000,359,-545,542,80259,-60320,388946
152459000,219,-1479,795,44076,-59541,286045
152478000,139,-1861,1228,3572,-56809,80946
152497000,441,-1944,1300,-42183,-38671,-114473
152516000,89,-1138,1035,-73709,-23099,-118061
152535000,-56,-785,592,-82167,-1389,-62992
152554000,94,-604,383,-73633,8351,-15847
152573000,357,-561,397,-59328,3175,-4091
152592000,401,-415,438,-42152,-5450,-13511
152611000,452,-366,278,-24748,-12259,-33389
152630000,322,-60,261,1099,-13404,-20854
152649000,329,-236,269,15236,-15190,54229
152668000,377,-428,472,34778,-13862,129694
152687000,220,-680,487,41450,-3175,135328
152706000,249,-1291,820,21053,-12274,72198
152725000,562,-1787,1152,-11618,-13145,-53053
152744000,496,-950,909,-25282,-12809,-98534
152763000,228,-564,398,-34946,-10274,-29816
152782000,343,-548,271,-26961,-2870,50610
152801000,459,-785,373,-17557,-9374,83404
152820000,213,-947,433,-23297,-6396,64320
152839000,496,-1270,727,-48931,-19175,17343